Title: * The title
Date: Fri Mar 29 19:59:56 2024
Plotname: DC transfer characteristic
Flags: real forward
No. Variables: 148
No. Points:          101
Offset:   0.0000000000000000e+000
Command: Linear Technology Corporation LTspice XVII
Variables:
	0	v1	voltage
	1	V(nv1)	voltage
	2	V(nv2)	voltage
	3	V(x01y00)	voltage
	4	V(x02y00)	voltage
	5	V(x03y00)	voltage
	6	V(x04y00)	voltage
	7	V(x05y00)	voltage
	8	V(x06y00)	voltage
	9	V(x07y00)	voltage
	10	V(x08y00)	voltage
	11	V(x09y00)	voltage
	12	V(x10y00)	voltage
	13	V(x11y00)	voltage
	14	V(x12y00)	voltage
	15	V(x00y01)	voltage
	16	V(x01y01)	voltage
	17	V(x02y01)	voltage
	18	V(x03y01)	voltage
	19	V(x04y01)	voltage
	20	V(x05y01)	voltage
	21	V(x06y01)	voltage
	22	V(x07y01)	voltage
	23	V(x08y01)	voltage
	24	V(x09y01)	voltage
	25	V(x10y01)	voltage
	26	V(x11y01)	voltage
	27	V(x12y01)	voltage
	28	V(x00y02)	voltage
	29	V(x01y02)	voltage
	30	V(x02y02)	voltage
	31	V(x03y02)	voltage
	32	V(x04y02)	voltage
	33	V(x05y02)	voltage
	34	V(x06y02)	voltage
	35	V(x07y02)	voltage
	36	V(x08y02)	voltage
	37	V(x09y02)	voltage
	38	V(x10y02)	voltage
	39	V(x11y02)	voltage
	40	V(x12y02)	voltage
	41	V(x00y03)	voltage
	42	V(x01y03)	voltage
	43	V(x02y03)	voltage
	44	V(x03y03)	voltage
	45	V(x04y03)	voltage
	46	V(x05y03)	voltage
	47	V(x06y03)	voltage
	48	V(x07y03)	voltage
	49	V(x08y03)	voltage
	50	V(x09y03)	voltage
	51	V(x10y03)	voltage
	52	V(x11y03)	voltage
	53	V(x12y03)	voltage
	54	V(x00y04)	voltage
	55	V(x01y04)	voltage
	56	V(x02y04)	voltage
	57	V(x03y04)	voltage
	58	V(x04y04)	voltage
	59	V(x05y04)	voltage
	60	V(x06y04)	voltage
	61	V(x07y04)	voltage
	62	V(x08y04)	voltage
	63	V(x09y04)	voltage
	64	V(x10y04)	voltage
	65	V(x11y04)	voltage
	66	I(Rx12y3v)	device_current
	67	I(Rx12y2v)	device_current
	68	I(Rx12y1v)	device_current
	69	I(Rx12y0v)	device_current
	70	I(Rx9y3v)	device_current
	71	I(Rx9y2v)	device_current
	72	I(Rx9y1v)	device_current
	73	I(Rx9y0v)	device_current
	74	I(Rx6y3v)	device_current
	75	I(Rx6y2v)	device_current
	76	I(Rx6y1v)	device_current
	77	I(Rx6y0v)	device_current
	78	I(Rx3y3v)	device_current
	79	I(Rx3y2v)	device_current
	80	I(Rx3y1v)	device_current
	81	I(Rx3y0v)	device_current
	82	I(Rx0y3v)	device_current
	83	I(Rx0y2v)	device_current
	84	I(Rx0y1v)	device_current
	85	I(Rx0y0v)	device_current
	86	I(Rx10y4)	device_current
	87	I(Rx7y4)	device_current
	88	I(Rx4y4)	device_current
	89	I(Rx1y4)	device_current
	90	I(Rx10y3)	device_current
	91	I(Rx7y3)	device_current
	92	I(Rx4y3)	device_current
	93	I(Rx1y3)	device_current
	94	I(Rx10y2)	device_current
	95	I(Rx7y2)	device_current
	96	I(Rx4y2)	device_current
	97	I(Rx1y2)	device_current
	98	I(Rx10y1)	device_current
	99	I(Rx7y1)	device_current
	100	I(Rx4y1)	device_current
	101	I(Rx1y1)	device_current
	102	I(Rx10y0)	device_current
	103	I(Rx7y0)	device_current
	104	I(Rx4y0)	device_current
	105	I(Rx1y0)	device_current
	106	I(Rx11y4)	device_current
	107	I(Rx9y4)	device_current
	108	I(Rx8y4)	device_current
	109	I(Rx6y4)	device_current
	110	I(Rx5y4)	device_current
	111	I(Rx3y4)	device_current
	112	I(Rx2y4)	device_current
	113	I(Rx0y4)	device_current
	114	I(Rx11y3)	device_current
	115	I(Rx9y3)	device_current
	116	I(Rx8y3)	device_current
	117	I(Rx6y3)	device_current
	118	I(Rx5y3)	device_current
	119	I(Rx3y3)	device_current
	120	I(Rx2y3)	device_current
	121	I(Rx0y3)	device_current
	122	I(Rx11y2)	device_current
	123	I(Rx9y2)	device_current
	124	I(Rx8y2)	device_current
	125	I(Rx6y2)	device_current
	126	I(Rx5y2)	device_current
	127	I(Rx3y2)	device_current
	128	I(Rx2y2)	device_current
	129	I(Rx0y2)	device_current
	130	I(Rx11y1)	device_current
	131	I(Rx9y1)	device_current
	132	I(Rx8y1)	device_current
	133	I(Rx6y1)	device_current
	134	I(Rx5y1)	device_current
	135	I(Rx3y1)	device_current
	136	I(Rx2y1)	device_current
	137	I(Rx0y1)	device_current
	138	I(Rx11y0)	device_current
	139	I(Rx9y0)	device_current
	140	I(Rx8y0)	device_current
	141	I(Rx6y0)	device_current
	142	I(Rx5y0)	device_current
	143	I(Rx3y0)	device_current
	144	I(Rx2y0)	device_current
	145	I(Rx0y0)	device_current
	146	I(V2)	device_current
	147	I(V1)	device_current
Values:
0		-5.000000000000000e+000
	-5.000000000000000e+000
	5.000000000000000e+000
	-4.960197813192239e+000
	-4.072534736539876e+000
	-4.052869454837753e+000
	-4.040919094974433e+000
	-3.240207144945256e+000
	-3.228057738013428e+000
	-3.217647027314854e+000
	-2.638160968752632e+000
	-2.628095783272089e+000
	-2.621148255347846e+000
	-2.195585435185590e+000
	-2.181777483249381e+000
	-4.287216921940317e+000
	-4.215028284997976e+000
	-3.617835212613303e+000
	-3.582138284554061e+000
	-3.564829168973022e+000
	-2.891610192296162e+000
	-2.874297416456226e+000
	-2.864072396346721e+000
	-2.238856758143473e+000
	-2.228336980640308e+000
	-2.217670150214369e+000
	-1.739682108767750e+000
	-1.718310960738041e+000
	-3.641335172408157e+000
	-3.570412508859947e+000
	-3.041759853693343e+000
	-3.006506669282930e+000
	-2.956840563856479e+000
	-2.444712749099763e+000
	-2.395944929408408e+000
	-2.357814074468727e+000
	-1.873598900512368e+000
	-1.835395042028716e+000
	-1.817623288905584e+000
	-1.216893812634888e+000
	-1.180527581808297e+000
	-3.136649067138955e+000
	-3.131493976950443e+000
	-2.536784767547118e+000
	-2.534274616442591e+000
	-2.529534251495425e+000
	-1.886755142068459e+000
	-1.881973536647180e+000
	-1.865036151384656e+000
	-1.322377461100699e+000
	-1.304980163753221e+000
	-1.281252445209562e+000
	-6.593630247731758e-001
	-6.125544754850029e-001
	-2.649999627198032e+000
	-2.619586879628223e+000
	-2.099035773733748e+000
	-2.083625117554546e+000
	-2.058234071011405e+000
	-1.479549314229016e+000
	-1.454005997745967e+000
	-1.420901614391556e+000
	-8.378490357484645e-001
	-8.061526862744608e-001
	-7.573467009132305e-001
	-9.800395775937021e-002
	-4.124025317916354e-008
	-2.488656750636534e-008
	-1.232131145950385e-008
	-4.954951288611546e-009
	-1.220510151031836e-008
	-1.656816850050056e-008
	-2.121949237817273e-009
	-2.223501867369881e-009
	-5.164295928540184e-009
	-1.376978647639746e-008
	-6.234678261267803e-009
	-1.198875841300736e-009
	-6.857548904830083e-009
	-8.450133399592138e-009
	-1.847542142185084e-008
	-5.408242131298211e-009
	-1.058869326366703e-008
	-1.238117662945217e-008
	-3.690246940235602e-008
	-6.227025672581658e-008
	-3.481557538149601e-008
	-2.261051235185669e-008
	-1.744664564211606e-008
	-1.058868644968221e-008
	-1.635368572044025e-008
	-1.199061495744854e-008
	-3.385080823945482e-009
	-1.792490938843412e-009
	-1.256525604926885e-008
	-2.701147514529554e-008
	-3.454658343138106e-008
	-2.452129165343689e-008
	-7.366360171570605e-009
	-7.264807548896893e-009
	-1.230060996992121e-008
	-2.536778894988560e-008
	-4.954951288582598e-009
	-7.178453154576804e-009
	-8.377328984426234e-009
	-1.378557105104170e-008
	-3.481557401585144e-008
	-3.481557401585148e-008
	-2.261047682936594e-008
	-2.261047682936581e-008
	-1.744622635927037e-008
	-1.744622635927084e-008
	-1.058868509379669e-008
	-1.058868509379669e-008
	-1.635368569702678e-008
	-1.635368569702695e-008
	-1.199061478560975e-008
	-1.199061478560982e-008
	-3.385079088340959e-009
	-3.385079088340824e-009
	-1.792490685256352e-009
	-1.792490685256472e-009
	-1.256525604197129e-008
	-1.256525604197108e-008
	-2.701147491259444e-008
	-2.701147491259506e-008
	-3.454658281905289e-008
	-3.454658281905283e-008
	-2.452129162157044e-008
	-2.452129162157052e-008
	-7.366360155512897e-009
	-7.366360155512825e-009
	-7.264807515429414e-009
	-7.264807515429459e-009
	-1.230060994383703e-008
	-1.230060994383712e-008
	-2.536778879279850e-008
	-2.536778879279895e-008
	-4.954951284464692e-009
	-4.954951284464689e-009
	-7.178453151827666e-009
	-7.178453151828130e-009
	-8.377328984328359e-009
	-8.377328984328605e-009
	-1.378557100140893e-008
	-1.378557100140869e-008
	0.000000000000000e+000
	7.605587149199455e-008
1		-4.900000000000000e+000
	-4.900000000000000e+000
	5.000000000000000e+000
	-4.863822467637985e+000
	-3.993013198615794e+000
	-3.975138769539249e+000
	-3.964330162102457e+000
	-3.178007090494512e+000
	-3.167018453196732e+000
	-3.157633449713827e+000
	-2.588218324257345e+000
	-2.579144803387734e+000
	-2.572904260183918e+000
	-2.155876653804823e+000
	-2.143473807561708e+000
	-4.198319537901991e+000
	-4.132396689084883e+000
	-3.544299998347087e+000
	-3.511701471884201e+000
	-3.496088576514263e+000
	-2.834758852118125e+000
	-2.819142655179201e+000
	-2.809974243354976e+000
	-2.196106600135969e+000
	-2.186673889841485e+000
	-2.177095106436626e+000
	-1.708046404345590e+000
	-1.688855174156726e+000
	-3.562287705879288e+000
	-3.497212016457958e+000
	-2.976234762937495e+000
	-2.943887905599778e+000
	-2.898166052696276e+000
	-2.393340864906270e+000
	-2.348445960036900e+000
	-2.313387374414741e+000
	-1.836367659480316e+000
	-1.801241952336725e+000
	-1.785084601253366e+000
	-1.193844887194241e+000
	-1.160782197488133e+000
	-3.066716804625951e+000
	-3.062226174398272e+000
	-2.481312761612927e+000
	-2.479126153810962e+000
	-2.474953899168542e+000
	-1.846073121964586e+000
	-1.841864569323702e+000
	-1.826604653289578e+000
	-1.293461025454616e+000
	-1.277786746772971e+000
	-1.256330883184279e+000
	-6.447074361756078e-001
	-6.023806593106651e-001
	-2.588530946564118e+000
	-2.561015783403883e+000
	-2.049249380616301e+000
	-2.035306979713399e+000
	-2.012191748851786e+000
	-1.442374654056628e+000
	-1.419120801306852e+000
	-1.388793628956975e+000
	-8.143041653622335e-001
	-7.852669033456330e-001
	-7.403242000040754e-001
	-9.024636563073535e-002
	-3.727774684904479e-008
	-2.248952022077836e-008
	-1.106571865620075e-008
	-4.450737072038668e-009
	-1.134611598285852e-008
	-1.533091471312490e-008
	-1.919593409816625e-009
	-2.020472028147591e-009
	-4.831147674651409e-009
	-1.265489466040127e-008
	-5.686861296793759e-009
	-1.105760010579711e-009
	-6.302696005309180e-009
	-7.720610709895039e-009
	-1.702395017306659e-008
	-4.953229420575287e-009
	-9.579845051635376e-009
	-1.114130814673594e-008
	-3.364108580708249e-008
	-5.680694798974500e-008
	-3.205979630077254e-008
	-2.071362664989354e-008
	-1.588259769917701e-008
	-9.579868141662581e-009
	-1.478789185465438e-008
	-1.080307237023855e-008
	-2.979399360397495e-009
	-1.561449625981590e-009
	-1.142381747428543e-008
	-2.483168854790613e-008
	-3.180305700798595e-008
	-2.249974550574674e-008
	-6.614982287499561e-009
	-6.514096609583863e-009
	-1.109520350299772e-008
	-2.316603922996456e-008
	-4.450734610516804e-009
	-6.471230351623705e-009
	-7.576953367255619e-009
	-1.253017206317924e-008
	-3.205971569018652e-008
	-3.205971569018665e-008
	-2.071362636107516e-008
	-2.071362636107503e-008
	-1.588250997347848e-008
	-1.588250997347820e-008
	-9.579844679912879e-009
	-9.579844679912747e-009
	-1.478787135990892e-008
	-1.478787135990917e-008
	-1.080307095752165e-008
	-1.080307095752194e-008
	-2.979393379771530e-009
	-2.979393379772047e-009
	-1.561449472209803e-009
	-1.561449472209921e-009
	-1.142381688040456e-008
	-1.142381688040464e-008
	-2.483511338788610e-008
	-2.483511338788638e-008
	-3.180305289510694e-008
	-3.180305289510705e-008
	-2.249971839665090e-008
	-2.249971839665163e-008
	-6.614970482727219e-009
	-6.614970482727244e-009
	-6.514094487037969e-009
	-6.514094487037926e-009
	-1.109520212863518e-008
	-1.109520212863537e-008
	-2.316592993365077e-008
	-2.316592993365042e-008
	-4.450732390093917e-009
	-4.450732390093794e-009
	-6.471201609800424e-009
	-6.471201609800332e-009
	-7.576948426330194e-009
	-7.576948426330475e-009
	-1.253016432089799e-008
	-1.253016432089791e-008
	0.000000000000000e+000
	6.933696943445133e-008
2		-4.800000000000001e+000
	-4.800000000000001e+000
	5.000000000000000e+000
	-4.767227903951026e+000
	-3.913108070569587e+000
	-3.896916183830176e+000
	-3.887170611778150e+000
	-3.115230945160830e+000
	-3.105323049331940e+000
	-3.096887063921676e+000
	-2.537707531770872e+000
	-2.529551531635635e+000
	-2.523961502321295e+000
	-2.115596933421966e+000
	-2.104486959207244e+000
	-4.109472073588345e+000
	-4.049478346231707e+000
	-3.470695950517502e+000
	-3.441029345631109e+000
	-3.427000861372104e+000
	-2.777639826953820e+000
	-2.763608376172113e+000
	-2.755419519602912e+000
	-2.152979791418659e+000
	-2.144554874089328e+000
	-2.135984986071455e+000
	-1.676022261853850e+000
	-1.658852368069597e+000
	-3.483461929576578e+000
	-3.423947205527013e+000
	-2.910855497918120e+000
	-2.881272802668273e+000
	-2.839322802561883e+000
	-2.342023724704654e+000
	-2.300832453038099e+000
	-2.268706824982378e+000
	-1.799036565379229e+000
	-1.766849431104880e+000
	-1.752206084908988e+000
	-1.170646898889507e+000
	-1.140682308218915e+000
	-2.997164792990122e+000
	-2.993265164114457e+000
	-2.426095253658797e+000
	-2.424196420200691e+000
	-2.420537956827140e+000
	-1.805571471925604e+000
	-1.801881180461656e+000
	-1.788183811151655e+000
	-1.264684784665515e+000
	-1.250615481578245e+000
	-1.231282255654509e+000
	-6.301351759921565e-001
	-5.919958050751639e-001
	-2.527619583995678e+000
	-2.502804454535742e+000
	-2.000000289720608e+000
	-1.987426041791457e+000
	-1.966449674465704e+000
	-1.405689315644402e+000
	-1.384587153181109e+000
	-1.356891110287923e+000
	-7.911670491005303e-001
	-7.646490063026598e-001
	-7.234032140314919e-001
	-8.282285161496453e-002
	-3.358333935045714e-008
	-2.025841494230526e-008
	-9.905030151402242e-009
	-3.986788301860889e-009
	-1.050599904360803e-008
	-1.413401918558059e-008
	-1.729939522887979e-009
	-1.830042373162356e-009
	-4.503682205804219e-009
	-1.158809242602333e-008
	-5.166075511420786e-009
	-1.014939100693118e-009
	-5.773145826542201e-009
	-7.029654902084613e-009
	-1.563206483190768e-008
	-4.518977868496858e-009
	-8.639786239588232e-009
	-9.995736833384683e-009
	-3.057284579823026e-008
	-5.165534880377777e-008
	-2.942255452549277e-008
	-1.891655085821166e-008
	-1.441291938957628e-008
	-8.639789394774949e-009
	-1.332490846359888e-008
	-9.696917962144100e-009
	-2.612498391460177e-009
	-1.355955071368234e-009
	-1.035336466625320e-008
	-2.275762688606754e-008
	-2.917944620277488e-008
	-2.057703218435258e-008
	-5.918320711609415e-009
	-5.818171547419460e-009
	-9.969291449362283e-009
	-2.108243733265495e-008
	-3.986802419138804e-009
	-5.816836450074355e-009
	-6.831752057358916e-009
	-1.135069049460244e-008
	-2.942253748246186e-008
	-2.942253748246181e-008
	-1.891655039748808e-008
	-1.891655039748832e-008
	-1.441289361344366e-008
	-1.441289361344399e-008
	-8.639784709024682e-009
	-8.639784709024573e-009
	-1.332490098804271e-008
	-1.332490098804280e-008
	-9.696885111060082e-009
	-9.696885111060281e-009
	-2.612496716877240e-009
	-2.612496716877257e-009
	-1.355950755461866e-009
	-1.355950755461811e-009
	-1.035336204525082e-008
	-1.035336204525083e-008
	-2.275743876320601e-008
	-2.275743876320558e-008
	-2.917944019348928e-008
	-2.917944019348964e-008
	-2.057703181444463e-008
	-2.057703181444468e-008
	-5.918241793603415e-009
	-5.918241793603073e-009
	-5.818127114625856e-009
	-5.818127114625943e-009
	-9.969250720256686e-009
	-9.969250720256481e-009
	-2.108237901335544e-008
	-2.108237901335569e-008
	-3.986788284021446e-009
	-3.986788284021973e-009
	-5.816829206999966e-009
	-5.816829206999650e-009
	-6.831749349313668e-009
	-6.831749349313450e-009
	-1.135068430109572e-008
	-1.135068430109549e-008
	0.000000000000000e+000
	6.300593693219217e-008
3		-4.700000000000001e+000
	-4.700000000000001e+000
	5.000000000000000e+000
	-4.670423301957772e+000
	-3.832877578860300e+000
	-3.818264459696062e+000
	-3.809508144966154e+000
	-3.052001360804625e+000
	-3.043099199522993e+000
	-3.035541249473279e+000
	-2.486762157388025e+000
	-2.479455051148539e+000
	-2.474463191526240e+000
	-2.074914097602098e+000
	-2.064992963280854e+000
	-4.020825203244053e+000
	-3.966397357573274e+000
	-3.397112493200102e+000
	-3.370198189597429e+000
	-3.357628946141030e+000
	-2.720396174917152e+000
	-2.707824273515293e+000
	-2.700530355780589e+000
	-2.109659464472688e+000
	-2.102155284444315e+000
	-2.094510591212592e+000
	-1.643778066328715e+000
	-1.628461813592610e+000
	-3.405008125873259e+000
	-3.350747962983651e+000
	-2.845728355032766e+000
	-2.818757519015220e+000
	-2.780397400146754e+000
	-2.290839288374324e+000
	-2.253172969578971e+000
	-2.223833646484939e+000
	-1.761729962857776e+000
	-1.732334468073732e+000
	-1.719109649085895e+000
	-1.147340019668405e+000
	-1.120278152635966e+000
	-2.928106929744242e+000
	-2.924727577814298e+000
	-2.371226567483476e+000
	-2.369581070766767e+000
	-2.366382109656139e+000
	-1.765286252501395e+000
	-1.762059460902115e+000
	-1.749804457843691e+000
	-1.236126845484225e+000
	-1.223539074178497e+000
	-1.206170888446051e+000
	-6.156834514022683e-001
	-5.814205880592336e-001
	-2.467344187814423e+000
	-2.445033985065235e+000
	-1.951364326613931e+000
	-1.940059367630307e+000
	-1.921086746288641e+000
	-1.369581930848894e+000
	-1.350495530821238e+000
	-1.325283002576055e+000
	-7.684870922717723e-001
	-7.443469324075347e-001
	-7.066191859053568e-001
	-7.575850476513077e-002
	-3.016045510400247e-008
	-1.819013394332002e-008
	-8.839566764045515e-009
	-3.560185655135520e-009
	-9.692665387149654e-009
	-1.298759448409401e-008
	-1.554189318681254e-009
	-1.651227667803517e-009
	-4.184202211705100e-009
	-1.057561064241330e-008
	-4.676840175395759e-009
	-9.268726484811293e-010
	-5.268489600436244e-009
	-6.377787751880131e-009
	-1.429990592481281e-008
	-4.105682023361591e-009
	-7.767654817752419e-009
	-8.942698828522049e-009
	-2.770303879231892e-008
	-4.682955635239596e-008
	-2.691296662858650e-008
	-1.722032660010864e-008
	-1.303613012258935e-008
	-7.767662735416303e-009
	-1.197055115948580e-008
	-8.675809708657683e-009
	-2.284367825093645e-009
	-1.175046230097369e-009
	-9.350432922688090e-009
	-2.078366414906288e-008
	-2.668243599301170e-008
	-1.876028826831729e-008
	-5.279331969207758e-009
	-5.182279136021549e-009
	-8.932252181871250e-009
	-1.912653569280929e-008
	-3.560180151910322e-009
	-5.211407845619625e-009
	-6.138280049802536e-009
	-1.024398152880017e-008
	-2.691295219379510e-008
	-2.691295219379517e-008
	-1.722029616423801e-008
	-1.722029616423791e-008
	-1.303611672693533e-008
	-1.303611672693526e-008
	-7.767654360976366e-009
	-7.767654360976594e-009
	-1.197055039545409e-008
	-1.197055039545403e-008
	-8.675779560565723e-009
	-8.675779560565784e-009
	-2.284367655379430e-009
	-2.284367655379790e-009
	-1.175043817880927e-009
	-1.175043817880812e-009
	-9.350413295725470e-009
	-9.350413295725540e-009
	-2.078365121790702e-008
	-2.078365121790759e-008
	-2.668240265789842e-008
	-2.668240265789833e-008
	-1.876028354103667e-008
	-1.876028354103701e-008
	-5.279315539350553e-009
	-5.279315539350477e-009
	-5.182279135738533e-009
	-5.182279135738755e-009
	-8.932250774016711e-009
	-8.932250774016868e-009
	-1.912647408104107e-008
	-1.912647408104120e-008
	-3.560175866450078e-009
	-3.560175866449914e-009
	-5.211401212325722e-009
	-5.211401212326371e-009
	-6.138269476546871e-009
	-6.138269476546199e-009
	-1.024395148984288e-008
	-1.024395148984296e-008
	0.000000000000000e+000
	5.707350522467335e-008
4		-4.600000000000001e+000
	-4.600000000000001e+000
	5.000000000000000e+000
	-4.573405597363580e+000
	-3.752354545882654e+000
	-3.739214905539000e+000
	-3.731375537213975e+000
	-2.988289199705173e+000
	-2.980319257631583e+000
	-2.973572256101481e+000
	-2.435300071753688e+000
	-2.428776999140855e+000
	-2.424334824498686e+000
	-2.033781863805847e+000
	-2.024953207826316e+000
	-3.932303966921610e+000
	-3.883101822438179e+000
	-3.323541748700555e+000
	-3.299211528788129e+000
	-3.287993088445472e+000
	-2.662948586720911e+000
	-2.651727774079340e+000
	-2.645254608417674e+000
	-2.066053596835504e+000
	-2.059393828759492e+000
	-2.052598474062950e+000
	-1.611284490094761e+000
	-1.597669899318007e+000
	-3.326881826379537e+000
	-3.277578885823113e+000
	-2.780835243905260e+000
	-2.756328470351420e+000
	-2.721374638403954e+000
	-2.239778538874338e+000
	-2.205456899210842e+000
	-2.178756522327088e+000
	-1.724440591712331e+000
	-1.697689095541036e+000
	-1.685783120136446e+000
	-1.123975487614391e+000
	-1.099612362222139e+000
	-2.859471887868152e+000
	-2.856548906970231e+000
	-2.316670786961295e+000
	-2.315247509489684e+000
	-2.312457877550059e+000
	-1.725229108962381e+000
	-1.722415207637366e+000
	-1.711488514347285e+000
	-1.207829382362102e+000
	-1.196605989303148e+000
	-1.181068992918924e+000
	-6.014266349344934e-001
	-5.707762266492223e-001
	-2.407664727070125e+000
	-2.387680121663243e+000
	-1.903301028883746e+000
	-1.893174489606242e+000
	-1.876075314830047e+000
	-1.334048556357015e+000
	-1.316846837941620e+000
	-1.293976225129321e+000
	-7.463073252589270e-001
	-7.244094717746197e-001
	-6.900159679302009e-001
	-6.906324035909536e-002
	-2.698755016634166e-008
	-1.627887219220214e-008
	-7.860933302743120e-009
	-3.168149745899952e-009
	-8.913749897908783e-009
	-1.188536862061747e-008
	-1.390455495456835e-009
	-1.484094434135277e-009
	-3.871888485950305e-009
	-9.615281953563862e-009
	-4.216425855128815e-009
	-8.432520746831862e-010
	-4.790909236731297e-009
	-5.766670406967287e-009
	-1.303335037889386e-008
	-3.715547484348041e-009
	-6.958059513071905e-009
	-7.974420549103368e-009
	-2.502065745945235e-008
	-4.231081592064942e-008
	-2.453448345043751e-008
	-1.562091400879422e-008
	-1.174887076817987e-008
	-6.958015336698744e-009
	-1.070848542580557e-008
	-7.735447576913563e-009
	-1.992067355756961e-009
	-1.016358186890137e-009
	-8.417972101689047e-009
	-1.891426240338159e-008
	-2.431313025772797e-008
	-1.704636798720813e-008
	-4.692779315198859e-009
	-4.599173221405526e-009
	-7.972353650623178e-009
	-1.729013649662691e-008
	-3.168165541490852e-009
	-4.652232919931214e-009
	-5.495481381393285e-009
	-9.211027766495811e-009
	-2.453448219305949e-008
	-2.453448219305964e-008
	-1.562075497766272e-008
	-1.562075497766259e-008
	-1.174886876739670e-008
	-1.174886876739673e-008
	-6.957960404318411e-009
	-6.957960404318531e-009
	-1.070845286182623e-008
	-1.070845286182627e-008
	-7.735418902690204e-009
	-7.735418902689949e-009
	-1.992067034551526e-009
	-1.992067034551780e-009
	-1.016357782523891e-009
	-1.016357782523739e-009
	-8.417944383514818e-009
	-8.417944383514757e-009
	-1.891425097845900e-008
	-1.891425097845900e-008
	-2.431306904070718e-008
	-2.431306904070769e-008
	-1.704633924758352e-008
	-1.704633924758366e-008
	-4.692774524423161e-009
	-4.692774524423135e-009
	-4.599140348270076e-009
	-4.599140348269870e-009
	-7.972311363175647e-009
	-7.972311363175289e-009
	-1.729011188291834e-008
	-1.729011188291861e-008
	-3.168142566542168e-009
	-3.168142566542012e-009
	-4.652231322284645e-009
	-4.652231322285023e-009
	-5.495480323536647e-009
	-5.495480323536980e-009
	-9.211027212025993e-009
	-9.211027212026162e-009
	0.000000000000000e+000
	5.152180589577722e-008
5		-4.500000000000002e+000
	-4.500000000000002e+000
	5.000000000000000e+000
	-4.476169392153791e+000
	-3.671504213319359e+000
	-3.659730096015402e+000
	-3.652734221652111e+000
	-2.924051741445026e+000
	-2.916939342700914e+000
	-2.910934205076666e+000
	-2.383340383040714e+000
	-2.377534552317503e+000
	-2.373592237145746e+000
	-1.992155640137817e+000
	-1.984320436162737e+000
	-3.843931942646160e+000
	-3.799593154671383e+000
	-3.249942872124295e+000
	-3.228017558229897e+000
	-3.218033667079352e+000
	-2.605319521961245e+000
	-2.595333519574789e+000
	-2.589604857074641e+000
	-2.022155134949374e+000
	-2.016261331881324e+000
	-2.010237821394467e+000
	-1.578473905123362e+000
	-1.566405715311316e+000
	-3.248978720826969e+000
	-3.204347672249681e+000
	-2.716111033178946e+000
	-2.693926494313514e+000
	-2.662195268661199e+000
	-2.188792561228472e+000
	-2.157635242209581e+000
	-2.133423664266100e+000
	-1.687115189036441e+000
	-1.662857256742977e+000
	-1.652169769127219e+000
	-1.100481471619145e+000
	-1.078611730412519e+000
	-2.791230600853512e+000
	-2.788707853600746e+000
	-2.262376117927123e+000
	-2.261147724907524e+000
	-2.258721187513356e+000
	-1.685345975582110e+000
	-1.682898327671409e+000
	-1.673186379127044e+000
	-1.179716863619556e+000
	-1.169741200078172e+000
	-1.155892002803817e+000
	-5.872650539098795e-001
	-5.599442294477417e-001
	-2.348569507715524e+000
	-2.330731271235472e+000
	-1.855805839262288e+000
	-1.846766901606084e+000
	-1.831412085296528e+000
	-1.299022290252334e+000
	-1.283575391209884e+000
	-1.262907583652547e+000
	-7.246072852928651e-001
	-7.048185448053757e-001
	-6.735844066535657e-001
	-6.271913441403273e-002
	-2.407305401749321e-008
	-1.452783072001820e-008
	-6.971399147382314e-009
	-2.811660533988763e-009
	-8.164534459189843e-009
	-1.083329973522813e-008
	-1.239481542989917e-009
	-1.329054628616212e-009
	-3.565925645232691e-009
	-8.708637276187254e-009
	-3.788297489907555e-009
	-7.634921535811829e-010
	-4.339654073756273e-009
	-5.195275283747338e-009
	-1.183569587451324e-008
	-3.349599129481849e-009
	-6.210673148996888e-009
	-7.087859660653740e-009
	-2.251899612477964e-008
	-3.810007142572910e-008
	-2.228090091097200e-008
	-1.411628640481023e-008
	-1.055038758200057e-008
	-6.210677480005293e-009
	-9.545196944065396e-009
	-6.875458117640063e-009
	-1.732782991439790e-009
	-8.771916460857198e-010
	-7.556459480568848e-009
	-1.715123546725206e-008
	-2.207152323768813e-008
	-1.543104745353905e-008
	-4.159750088848793e-009
	-4.070176074937233e-009
	-7.094987073531126e-009
	-1.558108544253022e-008
	-2.811651681625667e-009
	-4.140703365953943e-009
	-4.904206718117230e-009
	-8.253797955133867e-009
	-2.228076004607188e-008
	-2.228076004607193e-008
	-1.411622681159817e-008
	-1.411622681159835e-008
	-1.055031743517789e-008
	-1.055031743517813e-008
	-6.210667690657722e-009
	-6.210667690657693e-009
	-9.545183156324266e-009
	-9.545183156324319e-009
	-6.875455213905394e-009
	-6.875455213905422e-009
	-1.732782408448620e-009
	-1.732782408448641e-009
	-8.771914334142431e-010
	-8.771914334137974e-010
	-7.556430556228507e-009
	-7.556430556228476e-009
	-1.715121340051879e-008
	-1.715121340051881e-008
	-2.207149937639263e-008
	-2.207149937639294e-008
	-1.543104704177145e-008
	-1.543104704177124e-008
	-4.159749979600453e-009
	-4.159749979600376e-009
	-4.070175895863495e-009
	-4.070175895863790e-009
	-7.094987042498012e-009
	-7.094987042498353e-009
	-1.558108112736900e-008
	-1.558108112736966e-008
	-2.811644636346183e-009
	-2.811644636346113e-009
	-4.140697052685120e-009
	-4.140697052685322e-009
	-4.904182112055402e-009
	-4.904182112055341e-009
	-8.253781081360797e-009
	-8.253781081360312e-009
	0.000000000000000e+000
	4.635377443510655e-008
6		-4.400000000000002e+000
	-4.400000000000002e+000
	5.000000000000000e+000
	-4.378718735691967e+000
	-3.590338547998778e+000
	-3.579823998644588e+000
	-3.573600300089197e+000
	-2.859319412361462e+000
	-2.852992050906636e+000
	-2.847663396901877e+000
	-2.330891744702366e+000
	-2.325739945514740e+000
	-2.322251712754675e+000
	-1.950018914814842e+000
	-1.943086182651906e+000
	-3.755722058675314e+000
	-3.715919638507011e+000
	-3.176311878134629e+000
	-3.156629775943580e+000
	-3.147777032136819e+000
	-2.547446068908569e+000
	-2.538591453063105e+000
	-2.533538000036948e+000
	-1.977931206000971e+000
	-1.972732076719217e+000
	-1.967409049613901e+000
	-1.545348857208196e+000
	-1.534684095916292e+000
	-3.171418409147715e+000
	-3.131148174963689e+000
	-2.651603224197754e+000
	-2.631586294193780e+000
	-2.602883852561700e+000
	-2.137886895684262e+000
	-2.109703580600543e+000
	-2.087825748735261e+000
	-1.649730765359160e+000
	-1.627811047224527e+000
	-1.618249610655320e+000
	-1.076883500347194e+000
	-1.057317990580070e+000
	-2.723470752275141e+000
	-2.721297894700540e+000
	-2.208391389583032e+000
	-2.207333367193235e+000
	-2.205229725288078e+000
	-1.645631796905443e+000
	-1.643509853626764e+000
	-1.634911934635311e+000
	-1.151729406964405e+000
	-1.142898022961185e+000
	-1.130595134274882e+000
	-5.732083351172854e-001
	-5.489379708848319e-001
	-2.290108698109608e+000
	-2.274235689174386e+000
	-1.808921874618179e+000
	-1.800878751165797e+000
	-1.787136859489786e+000
	-1.264530114702250e+000
	-1.250705812991813e+000
	-1.232091679579822e+000
	-7.033621038102357e-001
	-6.855396882266041e-001
	-6.572791631702366e-001
	-5.674802554200625e-002
	-2.140351877975386e-008
	-1.292407371472570e-008
	-6.163804315174427e-009
	-2.487812339757954e-009
	-7.445996201001147e-009
	-9.836208934471338e-009
	-1.100889735726951e-009
	-1.186450145812773e-009
	-3.271483771353694e-009
	-7.856172874771674e-009
	-3.389343104998700e-009
	-6.886394329323730e-010
	-3.915633489225818e-009
	-4.662314486285960e-009
	-1.070375082066168e-008
	-3.007941523398800e-009
	-5.526443716610689e-009
	-6.281972767680723e-009
	-2.020531585180442e-008
	-3.419223890444502e-008
	-2.015958445141755e-008
	-1.271357310437487e-008
	-9.442156147744137e-009
	-5.526444360246972e-009
	-8.479393362911364e-009
	-6.086807702513973e-009
	-1.502215772880922e-009
	-7.555312328227695e-010
	-6.760301618851063e-009
	-1.549802049158066e-008
	-1.996483238705263e-008
	-1.392330899391568e-008
	-3.676007612462569e-009
	-3.590450804138561e-009
	-6.291205262018181e-009
	-1.398696160668248e-008
	-2.487802836956748e-009