Title: * The title
Date: Fri Apr 05 17:31:26 2024
Plotname: DC transfer characteristic
Flags: real forward
No. Variables: 8
No. Points:          181
Offset:   0.0000000000000000e+000
Command: Linear Technology Corporation LTspice XVII
Variables:
	0	v1	voltage
	1	V(x00)	voltage
	2	V(x01)	voltage
	3	V(x02)	voltage
	4	I(R1)	device_current
	5	I(R2)	device_current
	6	I(R0)	device_current
	7	I(V1)	device_current
Values:
0		-9.000000000000000e-001
	-9.000000000000000e-001
	-7.594686881871514e-001
	-7.853885689644805e-002
	-4.907676347884231e-006
	-4.907676347823831e-006
	-4.907676347823827e-006
	4.907676347850734e-006
1		-8.900000000000000e-001
	-8.900000000000000e-001
	-7.530252890800900e-001
	-7.655117625101110e-002
	-4.785759402572280e-006
	-4.783471671614961e-006
	-4.783471671614947e-006
	4.784512073669048e-006
2		-8.800000000000000e-001
	-8.800000000000000e-001
	-7.464930629740819e-001
	-7.461313842800849e-002
	-4.664668725472949e-006
	-4.662369038332708e-006
	-4.662369038332697e-006
	4.663436367228246e-006
3		-8.700000000000000e-001
	-8.700000000000000e-001
	-7.399001216611538e-001
	-7.270903256569275e-002
	-4.545650617074171e-006
	-4.543386719598931e-006
	-4.543386719598931e-006
	4.544458683291855e-006
4		-8.600000000000000e-001
	-8.600000000000000e-001
	-7.332468472294100e-001
	-7.083864512615176e-002
	-4.426094067292872e-006
	-4.426511372019010e-006
	-4.426511372019015e-006
	4.426318681354819e-006
5		-8.500000000000000e-001
	-8.500000000000000e-001
	-7.267051814078152e-001
	-6.890588288523872e-002
	-4.308125431801077e-006
	-4.305738395297408e-006
	-4.305738395297411e-006
	4.306864413119648e-006
6		-8.400000000000000e-001
	-8.400000000000000e-001
	-7.200617876644659e-001
	-6.702997341675027e-002
	-4.190922479817723e-006
	-4.188517991373043e-006
	-4.188517991373049e-006
	4.189676603358041e-006
7		-8.300000000000000e-001
	-8.300000000000000e-001
	-7.133524663729517e-001
	-6.519090893465018e-002
	-4.075960842190541e-006
	-4.073599928931347e-006
	-4.073599928931348e-006
	4.074761523739808e-006
8		-8.200000000000000e-001
	-8.200000000000000e-001
	-7.065779038115132e-001
	-6.338830589801880e-002
	-3.958688292486773e-006
	-3.960960241559078e-006
	-3.960960241559082e-006
	3.959867772890357e-006
9		-8.099999999999999e-001
	-8.099999999999999e-001
	-6.999394762063876e-001
	-6.150962099952659e-002
	-3.846009355736104e-006
	-3.843566408675816e-006
	-3.843566408675822e-006
	3.844767280223619e-006
10		-7.999999999999999e-001
	-7.999999999999999e-001
	-6.931666374540010e-001
	-5.970605457622599e-002
	-3.733362184008354e-006
	-3.730866521930178e-006
	-3.730866521930172e-006
	3.732120647889090e-006
11		-7.899999999999999e-001
	-7.899999999999999e-001
	-6.863219947254652e-001
	-5.794261730375018e-002
	-3.623117515424718e-006
	-3.620674195036356e-006
	-3.620674195036351e-006
	3.621928789824311e-006
12		-7.799999999999999e-001
	-7.799999999999999e-001
	-6.794070498978649e-001
	-5.621846982674195e-002
	-3.507648994699416e-006
	-3.512936978995259e-006
	-3.512936978995267e-006
	3.510275928356622e-006
13		-7.699999999999999e-001
	-7.699999999999999e-001
	-6.726700050354658e-001
	-5.439489924090095e-002
	-3.401439896301632e-006
	-3.398987087357304e-006
	-3.398987087357309e-006
	3.400249394859810e-006
14		-7.599999999999999e-001
	-7.599999999999999e-001
	-6.657474104210603e-001
	-5.267502700692191e-002
	-3.294083028558020e-006
	-3.291517019450579e-006
	-3.291517019450584e-006
	3.292867836698580e-006
15		-7.499999999999999e-001
	-7.499999999999999e-001
	-6.587466510464477e-001
	-5.099883878070653e-002
	-3.186834157038413e-006
	-3.186776644592003e-006
	-3.186776644592003e-006
	3.186806317554195e-006
16		-7.399999999999999e-001
	-7.399999999999999e-001
	-6.518509986677896e-001
	-4.926390931591870e-002
	-3.081067489028056e-006
	-3.078365691900038e-006
	-3.078365691900035e-006
	3.079793662632189e-006
17		-7.299999999999999e-001
	-7.299999999999999e-001
	-6.448345653882722e-001
	-4.759648077861839e-002
	-2.976862970457674e-006
	-2.974172685819180e-006
	-2.974172685819179e-006
	2.975628690575678e-006
18		-7.199999999999999e-001
	-7.199999999999999e-001
	-6.377359744361965e-001
	-4.597496777149260e-002
	-2.875461938067554e-006
	-2.872848814461436e-006
	-2.872848814461437e-006
	2.874296000828090e-006
19		-7.099999999999999e-001
	-7.099999999999999e-001
	-6.306389356085548e-001
	-4.435258732722958e-002
	-2.771472290719908e-006
	-2.771470739351692e-006
	-2.771470739351692e-006
	2.771471584209215e-006
20		-6.999999999999998e-001
	-6.999999999999998e-001
	-6.235603294797215e-001
	-4.271990538449427e-002
	-2.672181737987104e-006
	-2.669448952041422e-006
	-2.669448952041430e-006
	2.670973902481145e-006
21		-6.899999999999998e-001
	-6.899999999999998e-001
	-6.163519169312686e-001
	-4.115976846879432e-002
	-2.574669311501460e-006
	-2.571960303197926e-006
	-2.571960303197930e-006
	2.573508476748605e-006
22		-6.799999999999998e-001
	-6.799999999999998e-001
	-6.090564278992141e-001
	-3.964829606348996e-002
	-2.474973039269416e-006
	-2.477512565262538e-006
	-2.477512565262540e-006
	2.476083150082354e-006
23		-6.699999999999998e-001
	-6.699999999999998e-001
	-6.019015239683161e-001
	-3.805825473999173e-002
	-2.380915454059340e-006
	-2.378155272531841e-006
	-2.378155272531840e-006
	2.379748019945961e-006
24		-6.599999999999998e-001
	-6.599999999999998e-001
	-5.945691330373631e-001
	-3.656740573113468e-002
	-2.287783349737923e-006
	-2.284996233706115e-006
	-2.284996233706120e-006
	2.286644447312682e-006
25		-6.499999999999998e-001
	-6.499999999999998e-001
	-5.871432641959409e-001
	-3.512879880369461e-002
	-2.194105640178099e-006
	-2.195101658325142e-006
	-2.195101658325138e-006
	2.194520704191516e-006
26		-6.399999999999998e-001
	-6.399999999999998e-001
	-5.798331381963330e-001
	-3.362550657322259e-002
	-2.104032977616594e-006
	-2.101165076932289e-006
	-2.101165076932296e-006
	2.102881313575969e-006
27		-6.299999999999998e-001
	-6.299999999999998e-001
	-5.723600275578384e-001
	-3.221330171014744e-002
	-2.015763240744994e-006
	-2.012920293666171e-006
	-2.012920293666178e-006
	2.014664628440308e-006
28		-6.199999999999998e-001
	-6.199999999999998e-001
	-5.647890158248679e-001
	-3.085581091719578e-002
	-1.927555270777035e-006
	-1.928094441594739e-006
	-1.928094441594739e-006
	1.927767546176377e-006
29		-6.099999999999998e-001
	-6.099999999999998e-001
	-5.573239681999344e-001
	-2.943909987069390e-002
	-1.842487532396389e-006
	-1.839568079366357e-006
	-1.839568079366359e-006
	1.841384800455871e-006
30		-5.999999999999998e-001
	-5.999999999999998e-001
	-5.496426162973996e-001
	-2.814327498461750e-002
	-1.758596008130407e-006
	-1.758595559576521e-006
	-1.758595559576525e-006
	1.758595845899922e-006
31		-5.899999999999998e-001
	-5.899999999999998e-001
	-5.419627134763501e-001
	-2.684664024910666e-002
	-1.676491531706776e-006
	-1.677572434531253e-006
	-1.677572434531258e-006
	1.676889320185096e-006
32		-5.799999999999997e-001
	-5.799999999999997e-001
	-5.342890678723623e-001
	-2.554650853723492e-002
	-1.596331277082170e-006
	-1.596330793087179e-006
	-1.596330793087181e-006
	1.596331107110110e-006
33		-5.699999999999997e-001
	-5.699999999999997e-001
	-5.264890811040975e-001
	-2.431698522212024e-002
	-1.519501690537363e-006
	-1.519501275430179e-006
	-1.519501275430182e-006
	1.519501551553036e-006
34		-5.599999999999997e-001
	-5.599999999999997e-001
	-5.186795879153890e-001
	-2.309277476849659e-002
	-1.443004049168601e-006
	-1.443003743820712e-006
	-1.443003743820721e-006
	1.443003945376513e-006
35		-5.499999999999997e-001
	-5.499999999999997e-001
	-5.108040502674912e-001
	-2.190547463942769e-002
	-1.368813104907190e-006
	-1.368812636495554e-006
	-1.368812636495551e-006
	1.368812953819999e-006
36		-5.399999999999997e-001
	-5.399999999999997e-001
	-5.028193757256247e-001
	-2.077916794155153e-002
	-1.298433224685560e-006
	-1.298432840303074e-006
	-1.298432840303077e-006
	1.298433107105098e-006
37		-5.299999999999997e-001
	-5.299999999999997e-001
	-4.948584115421409e-001
	-1.963961021499052e-002
	-1.227225896017565e-006
	-1.227225023909755e-006
	-1.227225023909756e-006
	1.227225626144426e-006
38		-5.199999999999997e-001
	-5.199999999999997e-001
	-4.867868995278463e-001
	-1.856183445112699e-002
	-1.159878211064781e-006
	-1.159877791805973e-006
	-1.159877791805973e-006
	1.159878088661563e-006
39		-5.099999999999997e-001
	-5.099999999999997e-001
	-4.786597301838035e-001
	-1.751516394772078e-002
	-1.094800219035985e-006
	-1.094474241556901e-006
	-1.094474241556896e-006
	1.094703890868000e-006
40		-4.999999999999997e-001
	-4.999999999999997e-001
	-4.704894002055402e-001
	-1.649261466563423e-002
	-1.030578412028755e-006
	-1.030577959837433e-006
	-1.030577959837431e-006
	1.030578286686741e-006
41		-4.899999999999997e-001
	-4.899999999999997e-001
	-4.622116771240811e-001
	-1.553008426086940e-002
	-9.704324425180043e-007
	-9.704320920696619e-007
	-9.704320920696674e-007
	9.704323514192222e-007
42		-4.799999999999997e-001
	-4.799999999999997e-001
	-4.539285368419353e-001
	-1.457058137178095e-002
	-9.104757073377603e-007
	-9.104754053985457e-007
	-9.104754053985454e-007
	9.104756283441471e-007
43		-4.699999999999996e-001
	-4.699999999999996e-001
	-4.455491971182500e-001
	-1.366484154855387e-002
	-8.538785827704871e-007
	-8.538782242911804e-007
	-8.538782242911795e-007
	8.538784953498568e-007
44		-4.599999999999996e-001
	-4.599999999999996e-001
	-4.371135601643457e-001
	-1.279056460751867e-002
	-7.995605483312123e-007
	-7.992470718334440e-007
	-7.992470718334446e-007
	7.994836463771727e-007
45		-4.499999999999996e-001
	-4.499999999999996e-001
	-4.286213804991014e-001
	-1.194788774092372e-002
	-7.465908800703155e-007
	-7.465905207901940e-007
	-7.465905207901926e-007
	7.465907984575338e-007
46		-4.399999999999996e-001
	-4.399999999999996e-001
	-4.200275405053979e-001
	-1.116202587082951e-002
	-6.974844780763663e-007
	-6.974841820309852e-007
	-6.974841820309879e-007
	6.974844104949151e-007
47		-4.299999999999996e-001
	-4.299999999999996e-001
	-4.114322073217240e-001
	-1.037699850111742e-002
	-6.484303343533663e-007
	-6.484299888968780e-007
	-6.484299888968804e-007
	6.484302618302176e-007
48		-4.199999999999996e-001
	-4.199999999999996e-001
	-4.027243974988289e-001
	-9.654831048942842e-003
	-6.033039846112853e-007
	-6.033037384743862e-007
	-6.033037384743874e-007
	6.033039370581632e-007
49		-4.099999999999996e-001
	-4.099999999999996e-001
	-3.939869053933919e-001
	-8.949252159920738e-003
	-5.592141098663487e-007
	-5.592140615677925e-007
	-5.592140615677977e-007
	5.592141005762666e-007
50		-3.999999999999996e-001
	-3.999999999999996e-001
	-3.851667992877301e-001
	-8.289843829314532e-003
	-5.180096780705443e-007
	-5.180094553950684e-007
	-5.180094553950691e-007
	5.180096389241167e-007
51		-3.899999999999996e-001
	-3.899999999999996e-001
	-3.762945356416396e-001
	-7.659584828853660e-003
	-4.787286291006120e-007
	-4.786263103915307e-007
	-4.786263103915337e-007
	4.787107655307696e-007
52		-3.799999999999996e-001
	-3.799999999999996e-001
	-3.673592723925746e-001
	-7.064534471496721e-003
	-4.414434502622345e-007
	-4.414432562962166e-007
	-4.414432562962187e-007
	4.414434195296097e-007
53		-3.699999999999996e-001
	-3.699999999999996e-001
	-3.583559977175854e-001
	-6.507493719110226e-003
	-4.066353465129399e-007
	-4.066353174836409e-007
	-4.066353174836428e-007
	4.066353419596873e-007
54		-3.599999999999995e-001
	-3.599999999999995e-001
	-3.493114025207010e-001
	-5.973545802862204e-003
	-3.732705473956399e-007
	-3.732703862497265e-007
	-3.732703862497279e-007
	3.732705246173825e-007
55		-3.499999999999995e-001
	-3.499999999999995e-001
	-3.401883305307188e-001
	-5.483456280471637e-003
	-3.426461046484614e-007
	-3.426460449695411e-007
	-3.426460449695437e-007
	3.426460963291505e-007
56		-3.399999999999995e-001
	-3.399999999999995e-001
	-3.310345153368781e-001
	-5.010548239255896e-003
	-3.130954549776251e-007
	-3.130953270156216e-007
	-3.130953270156243e-007
	3.130954390129415e-007
57		-3.299999999999995e-001
	-3.299999999999995e-001
	-3.218005671487971e-001
	-4.582424194475762e-003
	-2.863431067684190e-007
	-2.863430373652592e-007
	-2.863430373652611e-007
	2.863430982674553e-007
58		-3.199999999999995e-001
	-3.199999999999995e-001
	-3.125416283860516e-001
	-4.168266653971599e-003
	-2.604635726360238e-007
	-2.604634760102341e-007
	-2.604634760102353e-007
	2.604635621131179e-007
59		-3.099999999999995e-001
	-3.099999999999995e-001
	-3.032057810939203e-001
	-3.797091050415341e-003
	-2.372697980161542e-007
	-2.372697372362659e-007
	-2.372697372362671e-007
	2.372697915518086e-007
60		-2.999999999999995e-001
	-2.999999999999995e-001
	-2.938473029903054e-001
	-3.438563148226310e-003
	-2.148663875972093e-007
	-2.148663184046432e-007
	-2.148663184046447e-007
	2.148663810936185e-007
61		-2.899999999999995e-001
	-2.899999999999995e-001
	-2.844185193697746e-001
	-3.119326951642725e-003
	-1.949181737689348e-007
	-1.949181297849874e-007
	-1.949181297849889e-007
	1.949181697558903e-007
62		-2.799999999999995e-001
	-2.799999999999995e-001
	-2.749673908725999e-001
	-2.812578655772934e-003
	-1.757503224876765e-007
	-1.757502756060004e-007
	-1.757502756060037e-007
	1.757503187274349e-007
63		-2.699999999999995e-001
	-2.699999999999995e-001
	-2.654545454250790e-001
	-2.540322165813165e-003
	-1.587377465860573e-007
	-1.587377191579383e-007
	-1.587377191579408e-007
	1.587377444652553e-007
64		-2.599999999999995e-001
	-2.599999999999995e-001
	-2.559186860063213e-001
	-2.280927514046396e-003
	-1.425288934736473e-007
	-1.425288634713038e-007
	-1.425288634713041e-007
	1.425288914430700e-007
65		-2.499999999999994e-001
	-2.499999999999994e-001
	-2.463304852886687e-001
	-2.050784889679411e-003
	-1.281479013253171e-007
	-1.281478862217732e-007
	-1.281478862217737e-007
	1.281479003474523e-007
66		-2.399999999999994e-001
	-2.399999999999994e-001
	-2.367185077486981e-001
	-1.833930438755003e-003
	-1.145972683558202e-007
	-1.145972502464465e-007
	-1.145972502464478e-007
	1.145972673327451e-007
67		-2.299999999999994e-001
	-2.299999999999994e-001
	-2.270634055142206e-001
	-1.641177123491342e-003
	-1.025526351992212e-007
	-1.025526277033486e-007
	-1.025526277033510e-007
	1.025526347975717e-007
68		-2.199999999999994e-001
	-2.199999999999994e-001
	-2.173842531184936e-001
	-1.461864742837607e-003
	-9.134790235470669e-008
	-9.134789205807952e-008
	-9.134789205807869e-008
	9.134790187411290e-008
69		-2.099999999999994e-001
	-2.099999999999994e-001
	-2.076703640713431e-001
	-1.301965664884900e-003
	-8.135624354692989e-008
	-8.135624010493240e-008
	-8.135624010493308e-008
	8.135624339597050e-008
70		-1.999999999999994e-001
	-1.999999999999994e-001
	-1.979329610556826e-001
	-1.155207859037678e-003
	-7.218575547362928e-008
	-7.218574996697997e-008
	-7.218574996698062e-008
	7.218575526327565e-008
71		-1.899999999999994e-001
	-1.899999999999994e-001
	-1.881679800036453e-001
	-1.023862614452070e-003
	-6.397834975894802e-008
	-6.397834823331559e-008
	-6.397834823331624e-008
	6.397834970473466e-008
72		-1.799999999999994e-001
	-1.799999999999994e-001
	-1.783809288212829e-001
	-9.048517228652771e-004
	-5.654168893151663e-008
	-5.654168616750518e-008
	-5.654168616750690e-008
	5.654168884581813e-008
73		-1.699999999999994e-001
	-1.699999999999994e-001
	-1.685720638478492e-001
	-7.980319237348643e-004
	-4.986681251131579e-008
	-4.986681181374655e-008
	-4.986681181374639e-008
	4.986681249140832e-008
74		-1.599999999999994e-001
	-1.599999999999994e-001
	-1.587434118764109e-001
	-7.022705014503830e-004
	-4.388294619813389e-008
	-4.388294490059349e-008
	-4.388294490059439e-008
	4.388294616569858e-008
75		-1.499999999999994e-001
	-1.499999999999994e-001
	-1.488973404954677e-001
	-6.162442797606047e-004
	-3.850740415336304e-008
	-3.850740379695581e-008
	-3.850740379695553e-008
	3.850740414524995e-008
76		-1.399999999999994e-001
	-1.399999999999994e-001
	-1.390344267532861e-001
	-5.396307631970498e-004
	-3.372003721764418e-008
	-3.372003665131082e-008
	-3.372003665131135e-008
	3.372003720628211e-008
77		-1.299999999999993e-001
	-1.299999999999993e-001
	-1.291572831060558e-001
	-4.709699260887253e-004
	-2.942961070369577e-008
	-2.942961049012298e-008
	-2.942961049012325e-008
	2.942961069983443e-008
78		-1.199999999999993e-001
	-1.199999999999993e-001
	-1.192666651457995e-001
	-4.098394900623886e-004
	-2.560973853115826e-008
	-2.560973830361834e-008
	-2.560973830361884e-008
	2.560973852749970e-008
79		-1.099999999999994e-001
	-1.099999999999994e-001
	-1.093640648092849e-001
	-3.554056551144435e-004
	-2.220831837690495e-008
	-2.220831823141637e-008
	-2.220831823141677e-008
	2.220831837481660e-008
80		-9.999999999999935e-002
	-9.999999999999935e-002
	-9.945133972777698e-002
	-3.066302452383362e-004
	-1.916047760142276e-008
	-1.916047752092583e-008
	-1.916047752092606e-008
	1.916047760040687e-008
81		-8.999999999999936e-002
	-8.999999999999936e-002
	-8.952862734500794e-002
	-2.634364471355132e-004
	-1.646141636052833e-008
	-1.646141632117607e-008
	-1.646141632117609e-008
	1.646141636007665e-008
82		-7.999999999999936e-002
	-7.999999999999936e-002
	-7.959846716124716e-002
	-2.244050080737949e-004
	-1.402244947869217e-008
	-1.402244944701743e-008
	-1.402244944701765e-008
	1.402244947837351e-008
83		-6.999999999999937e-002
	-6.999999999999937e-002
	-6.966086432826951e-002
	-1.895330488762768e-004
	-1.184339699579079e-008
	-1.184339698663362e-008
	-1.184339698663363e-008
	1.184339699570535e-008
84		-5.999999999999937e-002
	-5.999999999999937e-002
	-5.971775261380850e-002
	-1.577398430818200e-004
	-9.856727338555855e-009
	-9.856727326994000e-009
	-9.856727326993843e-009
	9.856727338459486e-009
85		-4.999999999999936e-002
	-4.999999999999936e-002
	-4.976992210082412e-002
	-1.285838363369417e-004
	-8.034848956838374e-009
	-8.034848955533992e-009
	-8.034848955534337e-009
	8.034848956828280e-009
86		-3.999999999999936e-002
	-3.999999999999936e-002
	-3.981831456997839e-002
	-1.015386948610336e-004
	-6.344872729203339e-009
	-6.344872727335716e-009
	-6.344872727336187e-009
	6.344872729189893e-009
87		-2.999999999999936e-002
	-2.999999999999936e-002
	-2.986463274069452e-002
	-7.565281836382106e-005
	-4.727335767336200e-009
	-4.727335767311483e-009
	-4.727335767311679e-009
	4.727335767336131e-009
88		-1.999999999999936e-002
	-1.999999999999936e-002
	-1.990919163291646e-002
	-5.075015137425313e-005
	-3.171236854241217e-009
	-3.171236855105861e-009
	-3.171236855105791e-009
	3.171236854247317e-009
89		-9.999999999999358e-003
	-9.999999999999358e-003
	-9.954108854934864e-003
	-2.564722429855534e-005
	-1.602624242873487e-009
	-1.602624242969407e-009
	-1.602624242969459e-009
	1.602624242874155e-009
90		6.418476861114186e-016
	6.418476861114186e-016
	8.750086873843593e-015
	-4.531458712173254e-015
	2.202847526720224e-021
	-2.831583450749037e-019
	-2.831583450749036e-019
	-1.056730641297241e-022
91		1.000000000000064e-002
	1.000000000000064e-002
	9.951395070521370e-003
	2.716387936318576e-005
	1.697395835221641e-009
	1.697395830978484e-009
	1.697395830978497e-009
	-1.697395835188034e-009
92		2.000000000000064e-002
	2.000000000000064e-002
	1.989820417669323e-002
	5.689072062490619e-005
	3.554944088632144e-009
	3.554944075511908e-009
	3.554944075512102e-009
	-3.554944088518215e-009
93		3.000000000000064e-002
	3.000000000000064e-002
	2.983929700935530e-002
	8.981222065253295e-005
	5.612117761654615e-009
	5.612117726937594e-009
	5.612117726937719e-009
	-5.612117761311954e-009
94		4.000000000000065e-002
	4.000000000000065e-002
	3.977183065063020e-002
	1.275172034416422e-004
	7.968198079188112e-009
	7.968198010525026e-009
	7.968198010525454e-009
	-7.968198078419382e-009
95		5.000000000000065e-002
	5.000000000000065e-002
	4.969431638212717e-002
	1.708376703387363e-004
	1.067517457286335e-008
	1.067517439353843e-008
	1.067517439353834e-008
	-1.067517457051280e-008
96		6.000000000000065e-002
	6.000000000000065e-002
	5.960343766225507e-002
	2.216271398376982e-004
	1.384886845417653e-008
	1.384886812971309e-008
	1.384886812971307e-008
	-1.384886844920911e-008
97		7.000000000000065e-002
	7.000000000000065e-002
	6.949685949984324e-002
	2.811905704921740e-004
	1.757082310411693e-008
	1.757082247651026e-008
	1.757082247651064e-008
	-1.757082309280113e-008
98		8.000000000000064e-002
	8.000000000000064e-002
	7.937026933285651e-002
	3.519381276110377e-004
	2.199164341953239e-008
	2.199164201041750e-008
	2.199164201041769e-008
	-2.199164338910473e-008
99		9.000000000000064e-002
	9.000000000000064e-002
	8.922150113735719e-002
	4.350803388829585e-004
	2.718697074886584e-008
	2.718696926483583e-008
	2.718696926483591e-008
	-2.718697071146732e-008
100		1.000000000000006e-001
	1.000000000000006e-001
	9.904284004683646e-002
	5.349288184876726e-004
	3.342623066613187e-008
	3.342622510692572e-008
	3.342622510692657e-008
	-3.342623049507216e-008
101		1.100000000000006e-001
	1.100000000000006e-001
	1.088356661119651e-001
	6.507122963022316e-004
	4.066121707432235e-008
	4.066121499592416e-008
	4.066121499592462e-008
	-4.066121700100047e-008
102		1.200000000000006e-001
	1.200000000000006e-001
	1.185839153242047e-001
	7.914084788000738e-004
	4.945295062874885e-008
	4.945293102489775e-008
	4.945293102489865e-008
	-4.945294977330001e-008
103		1.300000000000006e-001
	1.300000000000006e-001
	1.282988073248057e-001
	9.507470352824469e-004
	5.940955840832514e-008
	5.940955753877689e-008
	5.940955753877797e-008
	-5.940955836576234e-008
104		1.400000000000006e-001
	1.400000000000006e-001
	1.379502412220373e-001
	1.145550477384632e-003
	7.158232740692033e-008
	7.158228684829655e-008
	7.158228684829733e-008
	-7.158232519048800e-008
105		1.500000000000006e-001
	1.500000000000006e-001
	1.475625572496561e-001
	1.362215757421641e-003
	8.512116656747449e-008
	8.512110205710745e-008
	8.512110205710785e-008
	-8.512116225869545e-008
106		1.600000000000006e-001
	1.600000000000006e-001
	1.570906468630231e-001
	1.625952727109043e-003
	1.016013866004400e-007
	1.016012972029083e-007
	1.016012972029088e-007
	-1.016013800529060e-007
107		1.700000000000007e-001
	1.700000000000007e-001
	1.665722736897936e-001
	1.915656394896977e-003
	1.197042332976696e-007
	1.197040796276034e-007
	1.197040796276037e-007
	-1.197042196084442e-007
108		1.800000000000007e-001
	1.800000000000007e-001
	1.759462639159899e-001
	2.265515023599042e-003
	1.415659698756341e-007
	1.415657794920033e-007
	1.415657794920040e-007
	-1.415659516004857e-007
109		1.900000000000007e-001
	1.900000000000007e-001
	1.852700924377212e-001
	2.643407567859419e-003
	1.651795602706632e-007
	1.651792413473349e-007
	1.651792413473355e-007
	-1.651795233941618e-007
110		2.000000000000007e-001
	2.000000000000007e-001
	1.944568223109711e-001
	3.097920553463930e-003
	1.935809299868462e-007
	1.935805030587328e-007
	1.935805030587337e-007
	-1.935808776438765e-007
111		2.100000000000007e-001
	2.100000000000007e-001
	2.035989695476030e-001
	3.577349476109411e-003
	2.235392659668906e-007
	2.235386928912143e-007
	2.235386928912154e-007
	-2.235391824722824e-007
112		2.200000000000007e-001
	2.200000000000007e-001
	2.125755046732592e-001
	4.149334183771451e-003
	2.592816644829464e-007
	2.592804382136736e-007
	2.592804382136745e-007
	-2.592814505636679e-007
113		2.300000000000007e-001
	2.300000000000007e-001
	2.215066675672608e-001
	4.746676110141611e-003
	2.966070356104060e-007
	2.966066861303649e-007
	2.966066861303678e-007
	-2.966069733689579e-007
114		2.400000000000007e-001
	2.400000000000007e-001
	2.302676530564800e-001
	5.439125231263079e-003
	3.398776688166202e-007
	3.398759200877657e-007
	3.398759200877639e-007
	-3.398773030626663e-007
115		2.500000000000007e-001
	2.500000000000007e-001
	2.389486354755638e-001
	6.176285738022104e-003
	3.859391299625544e-007
	3.859390451004078e-007
	3.859390451004082e-007
	-3.859391120202335e-007
116		2.600000000000007e-001
	2.600000000000007e-001
	2.474923670229011e-001
	6.990151759274338e-003
	4.367974545932787e-007
	4.367952859553433e-007
	4.367952859553450e-007
	-4.367969267313425e-007
117		2.700000000000007e-001
	2.700000000000007e-001
	2.558891042009305e-001
	7.886168652006687e-003
	4.927852362959371e-007
	4.927849079778664e-007
	4.927849079778666e-007
	-4.927851560721110e-007
118		2.800000000000008e-001
	2.800000000000008e-001
	2.642222223475526e-001
	8.817740368351888e-003
	5.509986364295006e-007
	5.509962527729261e-007
	5.509962527729251e-007
	-5.509979785858346e-007
119		2.900000000000008e-001
	2.900000000000008e-001
	2.723403439919668e-001
	9.869467367546948e-003
	6.167196427711845e-007
	6.167157694845420e-007
	6.167157694845421e-007
	-6.167184367316204e-007
120		3.000000000000008e-001
	3.000000000000008e-001
	2.804358912674211e-001
	1.093381052402685e-002
	6.832258639417669e-007
	6.832236350358778e-007
	6.832236350358785e-007
	-6.832251817044987e-007
121		3.100000000000008e-001
	3.100000000000008e-001
	2.883678425624650e-001
	1.208958270887441e-002
	7.554481991509565e-007
	7.554446481648015e-007
	7.554446481648025e-007
	-7.554469949057234e-007
122		3.200000000000008e-001
	3.200000000000008e-001
	2.961167442986961e-001
	1.334765596043164e-002
	8.340597132024651e-007
	8.340581725332280e-007
	8.340581725332282e-007
	-8.340591996339280e-007
123		3.300000000000008e-001
	3.300000000000008e-001
	3.038823793726169e-001
	1.459637743694836e-002
	9.120903703193495e-007
	9.120873302965095e-007
	9.120873302965123e-007
	-9.120892649959220e-007
124		3.400000000000008e-001
	3.400000000000008e-001
	3.114483409921409e-001
	1.595669059121008e-002
	9.970937199645725e-007
	9.970895439346073e-007
	9.970895439346075e-007
	-9.970920681462341e-007
125		3.500000000000008e-001
	3.500000000000008e-001
	3.188705898641490e-001
	1.739732061411649e-002
	1.087111067419565e-006
	1.087110536966178e-006
	1.087110536966178e-006
	-1.087110863207088e-006
126		3.600000000000008e-001
	3.600000000000008e-001
	3.263103812554984e-001
	1.882814663392651e-002
	1.176522116912069e-006
	1.176518904909844e-006
	1.176518904909845e-006
	-1.176520789024844e-006
127		3.700000000000008e-001
	3.700000000000008e-001
	3.335647188599532e-001
	2.036261737349278e-002
	1.272407848748845e-006
	1.272403745262514e-006
	1.272403745262518e-006
	-1.272406031957054e-006
128		3.800000000000008e-001
	3.800000000000008e-001
	3.406522842431391e-001
	2.199029224992780e-002
	1.374114597417696e-006
	1.374112654822522e-006
	1.374112654822524e-006
	-1.374113764527937e-006
129		3.900000000000009e-001
	3.900000000000009e-001
	3.478196925378588e-001
	2.357334524870252e-002
	1.473036208300960e-006
	1.473033266433685e-006
	1.473033266433686e-006
	-1.473034871336520e-006
130		4.000000000000009e-001
	4.000000000000009e-001
	3.548208736329848e-001
	2.524929778760660e-002
	1.577762465582075e-006
	1.577758913842832e-006
	1.577758913842833e-006
	-1.577760758827723e-006
131		4.100000000000009e-001
	4.100000000000009e-001
	3.616541317549937e-001
	2.701909758506918e-002
	1.688353037653423e-006
	1.688348817358264e-006
	1.688348817358267e-006
	-1.688350898893716e-006
132		4.200000000000009e-001
	4.200000000000009e-001
	3.685044488969941e-001
	2.877936359313903e-002
	1.798347686882873e-006
	1.798342980694163e-006
	1.798342980694166e-006
	-1.798345394186697e-006
133		4.300000000000009e-001
	4.300000000000009e-001
	3.753061844146572e-001
	3.056678045600708e-002
	1.910036546778532e-006
	1.910033725991931e-006
	1.910033725991933e-006
	-1.910035108281459e-006
134		4.400000000000009e-001
	4.400000000000009e-001
	3.819618351532802e-001
	3.243583984684834e-002
	2.026829310628579e-006
	2.026826087474906e-006
	2.026826087474902e-006
	-2.026827593660262e-006
135		4.500000000000009e-001
	4.500000000000009e-001
	3.884722157435498e-001
	3.438608649229963e-002
	2.148695252197391e-006
	2.148691616367484e-006
	2.148691616367481e-006
	-2.148693233469639e-006
136		4.600000000000009e-001
	4.600000000000009e-001
	3.950921100079554e-001
	3.627512913509685e-002
	2.266749915661912e-006
	2.266732676098082e-006
	2.266732676098085e-006
	-2.266740737402231e-006
137		4.700000000000009e-001
	4.700000000000009e-001
	4.016766179663943e-001
	3.818394815359688e-002
	2.390924556759266e-006
	2.386009506950360e-006
	2.386009506950364e-006
	-2.388209285589772e-006
138		4.800000000000009e-001
	4.800000000000009e-001
	4.080697788449702e-001
	4.019970548163843e-002
	2.516826395458880e-006
	2.511968617544818e-006
	2.511968617544820e-006
	-2.514048679938288e-006
139		4.900000000000009e-001
	4.900000000000009e-001
	4.143421263931478e-001
	4.228298186109243e-002
	2.647152051156250e-006
	2.642146807264421e-006
	2.642146807264413e-006
	-2.644194611057553e-006
140		5.000000000000009e-001
	5.000000000000009e-001
	4.206570371843019e-001
	4.434247088379238e-002
	2.770853582341275e-006
	2.770838590729434e-006
	2.770838590729429e-006
	-2.770845096179618e-006
141		5.100000000000009e-001
	5.100000000000009e-001
	4.270256286656373e-001
	4.637195933231517e-002
	2.902150313635626e-006
	2.897655721135713e-006
	2.897655721135713e-006
	-2.899529573432789e-006